<?xml version="1.0"?>
<VTKFile type="UnstructuredGrid"  version="0.1"  >
<UnstructuredGrid>
<Piece  NumberOfPoints="1089" NumberOfCells="2048">
<Points>
<DataArray  type="Float64"  NumberOfComponents="3"  format="ascii">0 0 0  0.03125 0 0  0.0625 0 0  0.09375 0 0  0.125 0 0  0.15625 0 0  0.1875 0 0  0.21875 0 0  0.25 0 0  0.28125 0 0  0.3125 0 0  0.34375 0 0  0.375 0 0  0.40625 0 0  0.4375 0 0  0.46875 0 0  0.5 0 0  0.53125 0 0  0.5625 0 0  0.59375 0 0  0.625 0 0  0.65625 0 0  0.6875 0 0  0.71875 0 0  0.75 0 0  0.78125 0 0  0.8125 0 0  0.84375 0 0  0.875 0 0  0.90625 0 0  0.9375 0 0  0.96875 0 0  1 0 0  0 0.03125 0  0.03125 0.03125 0  0.0625 0.03125 0  0.09375 0.03125 0  0.125 0.03125 0  0.15625 0.03125 0  0.1875 0.03125 0  0.21875 0.03125 0  0.25 0.03125 0  0.28125 0.03125 0  0.3125 0.03125 0  0.34375 0.03125 0  0.375 0.03125 0  0.40625 0.03125 0  0.4375 0.03125 0  0.46875 0.03125 0  0.5 0.03125 0  0.53125 0.03125 0  0.5625 0.03125 0  0.59375 0.03125 0  0.625 0.03125 0  0.65625 0.03125 0  0.6875 0.03125 0  0.71875 0.03125 0  0.75 0.03125 0  0.78125 0.03125 0  0.8125 0.03125 0  0.84375 0.03125 0  0.875 0.03125 0  0.90625 0.03125 0  0.9375 0.03125 0  0.96875 0.03125 0  1 0.03125 0  0 0.0625 0  0.03125 0.0625 0  0.0625 0.0625 0  0.09375 0.0625 0  0.125 0.0625 0  0.15625 0.0625 0  0.1875 0.0625 0  0.21875 0.0625 0  0.25 0.0625 0  0.28125 0.0625 0  0.3125 0.0625 0  0.34375 0.0625 0  0.375 0.0625 0  0.40625 0.0625 0  0.4375 0.0625 0  0.46875 0.0625 0  0.5 0.0625 0  0.53125 0.0625 0  0.5625 0.0625 0  0.59375 0.0625 0  0.625 0.0625 0  0.65625 0.0625 0  0.6875 0.0625 0  0.71875 0.0625 0  0.75 0.0625 0  0.78125 0.0625 0  0.8125 0.0625 0  0.84375 0.0625 0  0.875 0.0625 0  0.90625 0.0625 0  0.9375 0.0625 0  0.96875 0.0625 0  1 0.0625 0  0 0.09375 0  0.03125 0.09375 0  0.0625 0.09375 0  0.09375 0.09375 0  0.125 0.09375 0  0.15625 0.09375 0  0.1875 0.09375 0  0.21875 0.09375 0  0.25 0.09375 0  0.28125 0.09375 0  0.3125 0.09375 0  0.34375 0.09375 0  0.375 0.09375 0  0.40625 0.09375 0  0.4375 0.09375 0  0.46875 0.09375 0  0.5 0.09375 0  0.53125 0.09375 0  0.5625 0.09375 0  0.59375 0.09375 0  0.625 0.09375 0  0.65625 0.09375 0  0.6875 0.09375 0  0.71875 0.09375 0  0.75 0.09375 0  0.78125 0.09375 0  0.8125 0.09375 0  0.84375 0.09375 0  0.875 0.09375 0  0.90625 0.09375 0  0.9375 0.09375 0  0.96875 0.09375 0  1 0.09375 0  0 0.125 0  0.03125 0.125 0  0.0625 0.125 0  0.09375 0.125 0  0.125 0.125 0  0.15625 0.125 0  0.1875 0.125 0  0.21875 0.125 0  0.25 0.125 0  0.28125 0.125 0  0.3125 0.125 0  0.34375 0.125 0  0.375 0.125 0  0.40625 0.125 0  0.4375 0.125 0  0.46875 0.125 0  0.5 0.125 0  0.53125 0.125 0  0.5625 0.125 0  0.59375 0.125 0  0.625 0.125 0  0.65625 0.125 0  0.6875 0.125 0  0.71875 0.125 0  0.75 0.125 0  0.78125 0.125 0  0.8125 0.125 0  0.84375 0.125 0  0.875 0.125 0  0.90625 0.125 0  0.9375 0.125 0  0.96875 0.125 0  1 0.125 0  0 0.15625 0  0.03125 0.15625 0  0.0625 0.15625 0  0.09375 0.15625 0  0.125 0.15625 0  0.15625 0.15625 0  0.1875 0.15625 0  0.21875 0.15625 0  0.25 0.15625 0  0.28125 0.15625 0  0.3125 0.15625 0  0.34375 0.15625 0  0.375 0.15625 0  0.40625 0.15625 0  0.4375 0.15625 0  0.46875 0.15625 0  0.5 0.15625 0  0.53125 0.15625 0  0.5625 0.15625 0  0.59375 0.15625 0  0.625 0.15625 0  0.65625 0.15625 0  0.6875 0.15625 0  0.71875 0.15625 0  0.75 0.15625 0  0.78125 0.15625 0  0.8125 0.15625 0  0.84375 0.15625 0  0.875 0.15625 0  0.90625 0.15625 0  0.9375 0.15625 0  0.96875 0.15625 0  1 0.15625 0  0 0.1875 0  0.03125 0.1875 0  0.0625 0.1875 0  0.09375 0.1875 0  0.125 0.1875 0  0.15625 0.1875 0  0.1875 0.1875 0  0.21875 0.1875 0  0.25 0.1875 0  0.28125 0.1875 0  0.3125 0.1875 0  0.34375 0.1875 0  0.375 0.1875 0  0.40625 0.1875 0  0.4375 0.1875 0  0.46875 0.1875 0  0.5 0.1875 0  0.53125 0.1875 0  0.5625 0.1875 0  0.59375 0.1875 0  0.625 0.1875 0  0.65625 0.1875 0  0.6875 0.1875 0  0.71875 0.1875 0  0.75 0.1875 0  0.78125 0.1875 0  0.8125 0.1875 0  0.84375 0.1875 0  0.875 0.1875 0  0.90625 0.1875 0  0.9375 0.1875 0  0.96875 0.1875 0  1 0.1875 0  0 0.21875 0  0.03125 0.21875 0  0.0625 0.21875 0  0.09375 0.21875 0  0.125 0.21875 0  0.15625 0.21875 0  0.1875 0.21875 0  0.21875 0.21875 0  0.25 0.21875 0  0.28125 0.21875 0  0.3125 0.21875 0  0.34375 0.21875 0  0.375 0.21875 0  0.40625 0.21875 0  0.4375 0.21875 0  0.46875 0.21875 0  0.5 0.21875 0  0.53125 0.21875 0  0.5625 0.21875 0  0.59375 0.21875 0  0.625 0.21875 0  0.65625 0.21875 0  0.6875 0.21875 0  0.71875 0.21875 0  0.75 0.21875 0  0.78125 0.21875 0  0.8125 0.21875 0  0.84375 0.21875 0  0.875 0.21875 0  0.90625 0.21875 0  0.9375 0.21875 0  0.96875 0.21875 0  1 0.21875 0  0 0.25 0  0.03125 0.25 0  0.0625 0.25 0  0.09375 0.25 0  0.125 0.25 0  0.15625 0.25 0  0.1875 0.25 0  0.21875 0.25 0  0.25 0.25 0  0.28125 0.25 0  0.3125 0.25 0  0.34375 0.25 0  0.375 0.25 0  0.40625 0.25 0  0.4375 0.25 0  0.46875 0.25 0  0.5 0.25 0  0.53125 0.25 0  0.5625 0.25 0  0.59375 0.25 0  0.625 0.25 0  0.65625 0.25 0  0.6875 0.25 0  0.71875 0.25 0  0.75 0.25 0  0.78125 0.25 0  0.8125 0.25 0  0.84375 0.25 0  0.875 0.25 0  0.90625 0.25 0  0.9375 0.25 0  0.96875 0.25 0  1 0.25 0  0 0.28125 0  0.03125 0.28125 0  0.0625 0.28125 0  0.09375 0.28125 0  0.125 0.28125 0  0.15625 0.28125 0  0.1875 0.28125 0  0.21875 0.28125 0  0.25 0.28125 0  0.28125 0.28125 0  0.3125 0.28125 0  0.34375 0.28125 0  0.375 0.28125 0  0.40625 0.28125 0  0.4375 0.28125 0  0.46875 0.28125 0  0.5 0.28125 0  0.53125 0.28125 0  0.5625 0.28125 0  0.59375 0.28125 0  0.625 0.28125 0  0.65625 0.28125 0  0.6875 0.28125 0  0.71875 0.28125 0  0.75 0.28125 0  0.78125 0.28125 0  0.8125 0.28125 0  0.84375 0.28125 0  0.875 0.28125 0  0.90625 0.28125 0  0.9375 0.28125 0  0.96875 0.28125 0  1 0.28125 0  0 0.3125 0  0.03125 0.3125 0  0.0625 0.3125 0  0.09375 0.3125 0  0.125 0.3125 0  0.15625 0.3125 0  0.1875 0.3125 0  0.21875 0.3125 0  0.25 0.3125 0  0.28125 0.3125 0  0.3125 0.3125 0  0.34375 0.3125 0  0.375 0.3125 0  0.40625 0.3125 0  0.4375 0.3125 0  0.46875 0.3125 0  0.5 0.3125 0  0.53125 0.3125 0  0.5625 0.3125 0  0.59375 0.3125 0  0.625 0.3125 0  0.65625 0.3125 0  0.6875 0.3125 0  0.71875 0.3125 0  0.75 0.3125 0  0.78125 0.3125 0  0.8125 0.3125 0  0.84375 0.3125 0  0.875 0.3125 0  0.90625 0.3125 0  0.9375 0.3125 0  0.96875 0.3125 0  1 0.3125 0  0 0.34375 0  0.03125 0.34375 0  0.0625 0.34375 0  0.09375 0.34375 0  0.125 0.34375 0  0.15625 0.34375 0  0.1875 0.34375 0  0.21875 0.34375 0  0.25 0.34375 0  0.28125 0.34375 0  0.3125 0.34375 0  0.34375 0.34375 0  0.375 0.34375 0  0.40625 0.34375 0  0.4375 0.34375 0  0.46875 0.34375 0  0.5 0.34375 0  0.53125 0.34375 0  0.5625 0.34375 0  0.59375 0.34375 0  0.625 0.34375 0  0.65625 0.34375 0  0.6875 0.34375 0  0.71875 0.34375 0  0.75 0.34375 0  0.78125 0.34375 0  0.8125 0.34375 0  0.84375 0.34375 0  0.875 0.34375 0  0.90625 0.34375 0  0.9375 0.34375 0  0.96875 0.34375 0  1 0.34375 0  0 0.375 0  0.03125 0.375 0  0.0625 0.375 0  0.09375 0.375 0  0.125 0.375 0  0.15625 0.375 0  0.1875 0.375 0  0.21875 0.375 0  0.25 0.375 0  0.28125 0.375 0  0.3125 0.375 0  0.34375 0.375 0  0.375 0.375 0  0.40625 0.375 0  0.4375 0.375 0  0.46875 0.375 0  0.5 0.375 0  0.53125 0.375 0  0.5625 0.375 0  0.59375 0.375 0  0.625 0.375 0  0.65625 0.375 0  0.6875 0.375 0  0.71875 0.375 0  0.75 0.375 0  0.78125 0.375 0  0.8125 0.375 0  0.84375 0.375 0  0.875 0.375 0  0.90625 0.375 0  0.9375 0.375 0  0.96875 0.375 0  1 0.375 0  0 0.40625 0  0.03125 0.40625 0  0.0625 0.40625 0  0.09375 0.40625 0  0.125 0.40625 0  0.15625 0.40625 0  0.1875 0.40625 0  0.21875 0.40625 0  0.25 0.40625 0  0.28125 0.40625 0  0.3125 0.40625 0  0.34375 0.40625 0  0.375 0.40625 0  0.40625 0.40625 0  0.4375 0.40625 0  0.46875 0.40625 0  0.5 0.40625 0  0.53125 0.40625 0  0.5625 0.40625 0  0.59375 0.40625 0  0.625 0.40625 0  0.65625 0.40625 0  0.6875 0.40625 0  0.71875 0.40625 0  0.75 0.40625 0  0.78125 0.40625 0  0.8125 0.40625 0  0.84375 0.40625 0  0.875 0.40625 0  0.90625 0.40625 0  0.9375 0.40625 0  0.96875 0.40625 0  1 0.40625 0  0 0.4375 0  0.03125 0.4375 0  0.0625 0.4375 0  0.09375 0.4375 0  0.125 0.4375 0  0.15625 0.4375 0  0.1875 0.4375 0  0.21875 0.4375 0  0.25 0.4375 0  0.28125 0.4375 0  0.3125 0.4375 0  0.34375 0.4375 0  0.375 0.4375 0  0.40625 0.4375 0  0.4375 0.4375 0  0.46875 0.4375 0  0.5 0.4375 0  0.53125 0.4375 0  0.5625 0.4375 0  0.59375 0.4375 0  0.625 0.4375 0  0.65625 0.4375 0  0.6875 0.4375 0  0.71875 0.4375 0  0.75 0.4375 0  0.78125 0.4375 0  0.8125 0.4375 0  0.84375 0.4375 0  0.875 0.4375 0  0.90625 0.4375 0  0.9375 0.4375 0  0.96875 0.4375 0  1 0.4375 0  0 0.46875 0  0.03125 0.46875 0  0.0625 0.46875 0  0.09375 0.46875 0  0.125 0.46875 0  0.15625 0.46875 0  0.1875 0.46875 0  0.21875 0.46875 0  0.25 0.46875 0  0.28125 0.46875 0  0.3125 0.46875 0  0.34375 0.46875 0  0.375 0.46875 0  0.40625 0.46875 0  0.4375 0.46875 0  0.46875 0.46875 0  0.5 0.46875 0  0.53125 0.46875 0  0.5625 0.46875 0  0.59375 0.46875 0  0.625 0.46875 0  0.65625 0.46875 0  0.6875 0.46875 0  0.71875 0.46875 0  0.75 0.46875 0  0.78125 0.46875 0  0.8125 0.46875 0  0.84375 0.46875 0  0.875 0.46875 0  0.90625 0.46875 0  0.9375 0.46875 0  0.96875 0.46875 0  1 0.46875 0  0 0.5 0  0.03125 0.5 0  0.0625 0.5 0  0.09375 0.5 0  0.125 0.5 0  0.15625 0.5 0  0.1875 0.5 0  0.21875 0.5 0  0.25 0.5 0  0.28125 0.5 0  0.3125 0.5 0  0.34375 0.5 0  0.375 0.5 0  0.40625 0.5 0  0.4375 0.5 0  0.46875 0.5 0  0.5 0.5 0  0.53125 0.5 0  0.5625 0.5 0  0.59375 0.5 0  0.625 0.5 0  0.65625 0.5 0  0.6875 0.5 0  0.71875 0.5 0  0.75 0.5 0  0.78125 0.5 0  0.8125 0.5 0  0.84375 0.5 0  0.875 0.5 0  0.90625 0.5 0  0.9375 0.5 0  0.96875 0.5 0  1 0.5 0  0 0.53125 0  0.03125 0.53125 0  0.0625 0.53125 0  0.09375 0.53125 0  0.125 0.53125 0  0.15625 0.53125 0  0.1875 0.53125 0  0.21875 0.53125 0  0.25 0.53125 0  0.28125 0.53125 0  0.3125 0.53125 0  0.34375 0.53125 0  0.375 0.53125 0  0.40625 0.53125 0  0.4375 0.53125 0  0.46875 0.53125 0  0.5 0.53125 0  0.53125 0.53125 0  0.5625 0.53125 0  0.59375 0.53125 0  0.625 0.53125 0  0.65625 0.53125 0  0.6875 0.53125 0  0.71875 0.53125 0  0.75 0.53125 0  0.78125 0.531
[...]
<PointData  Scalars="f_55"> 
<DataArray  type="Float64"  Name="f_55"  format="ascii">0.0000000000000000e+00  4.2051584054798155e-02  8.3284250597048595e-02  1.2289671023860026e-01  1.6012254503770920e-01  1.9424670043624886e-01  2.2462089411692751e-01  2.5067765826245514e-01  2.7194278746193734e-01  2.8804601948166475e-01  2.9872981952877348e-01  3.0385615900007679e-01  3.0341116853111172e-01  2.9750750253825542e-01  2.8638419270307558e-01  2.7040372146796032e-01  2.5004605441778260e-01  2.2589946904905747e-01  1.9864822128497550e-01  1.6905738117014496e-01  1.3795549811221483e-01  1.0621607069250340e-01  7.4739069146876946e-02  4.4434018739830800e-02  1.6206513244012476e-02  -9.0492543217101599e-03  -3.0447706685413856e-02  -4.7090542704362796e-02  -5.8007608333636655e-02  -6.2007548886419316e-02  -5.7270630843790089e-02  -4.0063987866374683e-02  0.0000000000000000e+00  0.0000000000000000e+00  3.7607962989688229e-02  7.4506436938077986e-02  1.1000087241438598e-01  1.4342627548613029e-01  1.7416119344570866e-01  2.0164079713600991e-01  2.2536883270239919e-01  2.4492826913087473e-01  2.5999052056555472e-01  2.7032316270460294e-01  2.7579607740565254e-01  2.7638593792299221e-01  2.7217888650081262e-01  2.6337117003987359e-01  2.5026742196311341e-01  2.3327625756718290e-01  2.1290293186611181e-01  1.8973901333086346e-01  1.6444933265038642e-01  1.3775681434781598e-01  1.1042612215812993e-01  8.3247304362122285e-02  5.7020826756263014e-02  3.2545613831958663e-02  1.0612150749495463e-02  -7.9963890822212086e-03  -2.2490186772423450e-02  -3.2037940761841466e-02  -3.5699761247330875e-02  -3.2328698172592443e-02  -2.0574891890887601e-02  0.0000000000000000e+00  0.0000000000000000e+00  3.3873830961465422e-02  6.7132661733496524e-02  9.9174066930325822e-02  1.2942049083386958e-01  1.5733100008593442e-01  1.8241226654012455e-01  2.0422860198100801e-01  2.2241092614292599e-01  2.3666461127592900e-01  2.4677619691899799e-01  2.5261898882979367e-01  2.5415752592213015e-01  2.5145080617333182e-01  2.4465401624635719e-01  2.3401835278580224e-01  2.1988842897718114e-01  2.0269680554060893e-01  1.8295541171752794e-01  1.6124400059266555e-01  1.3819621889235473e-01  1.1448424432692514e-01  9.0803167393317771e-02  6.7856353156498933e-02  4.6342956436176100e-02  2.6948629014344774e-02  1.0340184969061977e-02  -2.8358750494290501e-03  -1.1954206860273760e-02  -1.6424857217901080e-02  -1.5769508721706172e-02  -9.9068815278554670e-03  0.0000000000000000e+00  0.0000000000000000e+00  3.0754699104984341e-02  6.0976312033149800e-02  9.0142242481157944e-02  1.1775061997903559e-01  1.4333004696139551e-01  1.6644865997666375e-01  1.8672236527333355e-01  2.0382218341398683e-01  2.1748072242744768e-01  2.2749787851556885e-01  2.3374590903211087e-01  2.3617399513937676e-01  2.3481227525217249e-01  2.2977508028266924e-01  2.2126279415356759e-01  2.0956152129882075e-01  1.9503971506079607e-01  1.7814119809152668e-01  1.5937454939516946e-01  1.3929947016257352e-01  1.1851124663736046e-01  9.7624638134538255e-02  7.7258393394729591e-02  5.8021196713594063e-02  4.0499209468088000e-02  2.5244369263475383e-02  1.2760706399812586e-02  3.4818449114119910e-03  -2.2759522435800046e-03  -4.4175980228591191e-03  -3.2831255121730765e-03  0.0000000000000000e+00  0.0000000000000000e+00  2.8168653360912552e-02  5.5875644554567214e-02  8.2667970041121086e-02  1.0810969652875285e-01  1.3178989846670403e-01  1.5332993568816491e-01  1.7238995277162092e-01  1.8867457839948407e-01  2.0193792805117927e-01  2.1198815139720983e-01  2.1869187496818140e-01  2.2197889764344839e-01  2.2184731520074485e-01  2.1836883648086622e-01  2.1169347729374421e-01  2.0205229438836930e-01  1.8975664275004436e-01  1.7519280778664614e-01  1.5881173114369451e-01  1.4111459425047979e-01  1.2263581702638633e-01  1.0392526837935530e-01  8.5531132859415895e-02  6.7984105871318132e-02  5.1782589660041692e-02  3.7377355073658511e-02  2.5152478844245776e-02  1.5396829849032951e-02  8.2568006105887201e-03  3.6581941847362897e-03  1.1919774525914481e-03  0.0000000000000000e+00  0.0000000000000000e+00  2.6044269571250889e-02  5.1689641929033137e-02  7.6544293489039794e-02  1.0023028734038275e-01  1.2238988380110809e-01  1.4269114734101504e-01  1.6083272333363410e-01  1.7654778102509480e-01  1.8960730423254460e-01  1.9982315290230859e-01  2.0705156114715881e-01  2.1119784986679255e-01  2.1222292853336214e-01  2.1015150249539752e-01  2.0508085830620568e-01  1.9718804622617533e-01  1.8673279019076808e-01  1.7405396911472779e-01  1.5955898053099685e-01  1.4370711688776594e-01  1.2698943155998385e-01  1.0990789269461676e-01  9.2955918812726079e-02  7.6601097077238736e-02  6.1269510004130508e-02  4.7329911668796555e-02  3.5074998465568288e-02  2.4696186636384215e-02  1.6248128151509458e-02  9.6015960219595353e-03  4.3928409715037068e-03  0.0000000000000000e+00  0.0000000000000000e+00  2.4318782356546664e-02  4.8294357538635348e-02  7.1589265308377906e-02  9.3877244655235642e-02  1.1484810928921102e-01  1.3421179356718552e-01  1.5170138580653761e-01  1.6707510975542392e-01  1.8011747942576406e-01  1.9064026326533792e-01  1.9848438949149905e-01  2.0352428393257632e-01  2.0567598032534612e-01  2.0490933662809352e-01  2.0126285365820745e-01  1.9485756977277255e-01  1.8590540215706547e-01  1.7470803134591523e-01  1.6164496091589259e-01  1.4715260873193836e-01  1.3169862986670000e-01  1.1575611860365422e-01  9.9780986532017668e-02  8.4193616132135635e-02  6.9363899534299528e-02  5.5597567445146670e-02  4.3121338761550422e-02  3.2064764490515374e-02  2.2437921707559125e-02  1.4107218713982234e-02  6.7777899033031191e-03  0.0000000000000000e+00  0.0000000000000000e+00  2.2936500577420752e-02  4.5579733579701659e-02  6.7641140106964426e-02  8.8841232486314883e-02  1.0891326215934723e-01  1.2760584168677983e-01  1.4468420692167339e-01  1.5992994691483506e-01  1.7313938422198519e-01  1.8412145691502366e-01  1.9269689511467084e-01  1.9870134468763187e-01  2.0199515912602586e-01  2.0248110614049691e-01  2.0012809487162012e-01  1.9499530024158884e-01  1.8724880080277903e-01  1.7716385822752778e-01  1.6511032775286758e-01  1.5152435711059586e-01  1.3687358483923082e-01  1.2162364340583287e-01  1.0621121444642075e-01  9.1025065323370707e-02  7.6393406999665084e-02  6.2574523488397427e-02  4.9747808958289064e-02  3.8003539998493104e-02  2.7331554330948991e-02  1.7611561493029140e-02  8.6110985173315120e-03  0.0000000000000000e+00  0.0000000000000000e+00  2.1847482074185656e-02  4.3446918830537265e-02  6.4554266103408586e-02  8.4933074631845268e-02  1.0435723878481512e-01  1.2261239445067969e-01  1.3949541603301269e-01  1.5481155017878998e-01  1.6836916189371687e-01  1.7997310468528113e-01  1.8941939704790783e-01  1.9649565690448054e-01  2.0099234590189774e-01  2.0272781468027273e-01  2.0158495159189269e-01  1.9755065492444923e-01  1.9074504589962846e-01  1.8142870032784816e-01  1.6998351000289291e-01  1.5687249523655636e-01  1.4259073468317923e-01  1.2762030472755637e-01  1.1239742884870003e-01  9.7293458371467995e-02  8.2606381781815605e-02  6.8557812994368722e-02  5.5291291508569741e-02  4.2869853991247368e-02  3.1273140903818504e-02  2.0396359975296239e-02  1.0055039117383969e-02  0.0000000000000000e+00  0.0000000000000000e+00  2.1006499238102907e-02  4.1806154794947793e-02  6.2195789431531159e-02  8.1979092816788057e-02  1.0096881551809571e-01  1.1898723544864709e-01  1.3586397599943972e-01  1.5143020065322832e-01  1.6550869043914573e-01  1.7790083404586468e-01  1.8837433866557651e-01  1.9665873978313386e-01  2.0245741891762450e-01  2.0548210518147247e-01  2.0550760728371467e-01  2.0243346960887373e-01  1.9633159834030067e-01  1.8746063974300722e-01  1.7623978128580453e-01  1.6319064588250723e-01  1.4886709752746791e-01  1.3379357313191043e-01  1.1842438064225240e-01  1.0312544976991854e-01  8.8172283417967290e-02  7.3755639137076126e-02  5.9988452601729296e-02  4.6911036379125991e-02  3.4494673633716971e-02  2.2645665358645397e-02  1.1212689835020516e-02  0.0000000000000000e+00  0.0000000000000000e+00  2.0372340414130503e-02  4.0575332630830116e-02  6.0443355557853587e-02  7.9817735937649043e-02  9.8548819496300899e-02  1.1649589959860857e-01  1.3352356012426983e-01  1.4949266794587218e-01  1.6424469675949407e-01  1.7758018668930478e-01  1.8923647555683704e-01  1.9887535812818946e-01  2.0609467478364213e-01  2.1047440777514140e-01  2.1165542118857614e-01  2.0943143862094082e-01  2.0382217277669606e-01  1.9509759221023598e-01  1.8374169284993730e-01  1.7036923559207723e-01  1.5562624930309418e-01  1.4010586207317904e-01  1.2429764627259417e-01  1.0857131944088394e-01  9.3183929307297381e-02  7.8296929401105234e-02  6.3993277294529943e-02  5.0290320310275909e-02  3.7148599178406759e-02  2.4478869345038599e-02  1.2150037929411323e-02  0.0000000000000000e+00  0.0000000000000000e+00  1.9907493388156037e-02  3.9679333406291144e-02  5.9184029944895140e-02  7.8297904728052536e-02  9.6907495363866863e-02  1.1490940899846011e-01  1.3220551658033930e-01  1.4869064540788499e-01  1.6423022625950293e-01  1.7862815117675329e-01  1.9159142298557863e-01  2.0270674837266106e-01  2.1145007099785051e-01  2.1724600535275654e-01  2.1957631372666378e-01  2.1811040754920602e-01  2.1281129014361108e-01  2.0397263348833539e-01  1.9216956014489120e-01  1.7814285753471812e-01  1.6266188846465673e-01  1.4641207114066918e-01  1.2993237537687521e-01  1.1360241357312270e-01  9.7661833962763636e-02  8.2241549950067952e-02  6.7392573442261711e-02  5.3106775586576956e-02  3.9330056691205657e-02  2.5971045320504441e-02  1.2908560543684690e-02  0.0000000000000000e+00  0.0000000000000000e+00  1.9578238567057850e-02  3.9050231620999895e-02  5.8314627411860352e-02  7.7279377013001332e-02  9.5864870872799879e-02  1.1400416994477350e-01  1.3163745947412150e-01  1.4869657802420322e-01  1.6507550346531674e-01  1.8058617301392790e-01  1.9490765184032866e-01  2.0754893577775702e-01  2.1785471801027989e-01  2.2507897431461199e-01  2.2852718122480919e-01  2.2773149583087893e-01  2.2259520531836607e-01  2.1344501909184216e-01  2.0096669833954500e-01  1.8605112954769171e-01  1.6961333103002993e-01  1.5244724509296986e-01  1.3515018341193441e-01  1.1811466911006249e-01  1.0156246872995128e-01  8.5592087262148453e-02  7.0220421173405670e-02  5.5411424624198583e-02  4.1092989780315829e-02  2.7166472475551200e-02  1.3513104021669980e-02  0.0000000000000000e+00  0.0000000000000000e+00  1.9355135926813510e-02  3.8628351475764204e-02  5.7743498360900050e-02  7.6635549640594561e-02  9.5254712958933202e-02  1.1356736907467686e-01  1.3155018967439602e-01  1.4917190355213872e-01  1.6635685004696832e-01  1.8292859155682911e-01  1.9854286998278256e-01  2.1263540758433991e-01  2.2442265249584664e-01  2.3298888522547451e-01  2.3746267635945009e-01  2.3723827570859615e-01  2.3216034237267869e-01  2.2259242274929825e-01  2.0933699811092321e-01  1.9344185895044361e-01  1.7597344462524572e-01  1.5783789799119383e-01  1.3969247017970723e-01  1.2194287745819136e-01  1.0479287270304012e-01  8.8308539048369841e-02  7.2472746887348949e-02  5.7221270174997001e-02  4.2462733855378257e-02  2.8088404640275837e-02  1.3977297489266101e-02  0.0000000000000000e+00  0.0000000000000000e+00  1.9213824335634653e-02  3.8364019222488069e-02  5.7393560702813776e-02  7.6258287336413377e-02  9.4931996002494079e-02  1.1340819063927800e-01  1.3169416714791632e-01  1.4979066248379996e-01  1.6764959159323703e-01  1.8510702986787503e-01  2.0180169147757024e-01  2.1710893362591988e-01  2.3013624156047827e-01  2.3982148016024746e-01  2.4513918828977141e-01  2.4536294935448863e-01  2.4028627919701237e-01  2.3030598269152441e-01  2.1632865477100066e-01  1.9954177705508208e-01  1.8114633216228654e-01  1.6214782990011228e-01  1.4325628519263595e-01  1.2488876243146076e-01  1.0723298082108665e-01  9.0326554039089416e-02  7.4122613090716702e-02  5.8532182721576453e-02  4.3446473235706738e-02  2.8746625025684022e-02  1.4307560135062868e-02  0.0000000000000000e+00  0.0000000000000000e+00  1.9135979447101475e-02  3.8219684671987712e-02  5.7206038893740339e-02  7.6064072348842049e-02  9.4782743042289161e-02  1.1337332643909870e-01  1.3186360653821588e-01  1.5027623773657675e-01  1.6858265190516827e-01  1.8662882024974545e-01  2.0404367783694502e-01  2.2016328643616323e-01  2.3402214238815724e-01  2.4445853441443932e-01  2.5034108784443815e-01  2.5085952822811697e-01  2.4577105242778746e-01  2.3549461493417848e-01  2.2100851249624828e-01  2.0359714586477365e-01  1.8455520470594511e-01  1.6495757427136476e-01  1.4555119145142381e-01  1.2676115881559283e-01  1.0876416143005505e-01  9.1578148227737299e-02  7.5135702110267114e-02  5.9330684338294082e-02  4.4042042934221204e-02  2.9143432777243475e-02  1.4506162220849113e-02  0.0000000000000000e+00  0.0000000000000000e+00  1.9110222789149072e-02  3.8171951321631252e-02  5.7144092898083927e-02  7.6000094276957170e-02  9.4734023827423561e-02  1.1336321048247380e-01  1.3192252697497700e-01  1.5044239541160884e-01  1.6890147647706996e-01  1.8715000404114945e-01  2.0481467359299421e-01  2.2121912722599843e-01  2.3537333215239914e-01  2.4608086782445310e-01  2.5217219988539702e-01  2.5280550599614027e-01  2.4772262939460180e-01  2.3734812217958368e-01  2.2268444789759803e-01  2.0505041536736565e-01  1.8577502508351448e-01  1.6595929923628217e-01  1.4636468219310464e-01  1.2742009074629485e-01  1.0929876117049775e-01  9.2011758815510616e-02  7.5484262269261276e-02  5.9603846013513616e-02  4.4244888823456972e-02  2.9278166387400582e-02  1.4573473994355579e-02  0.0000000000000000e+00  0.0000000000000000e+00  1.9132767343320763e-02  3.8213026210994580e-02  5.7195434484638014e-02  7.6048698048786570e-02  9.4761375261388336e-02  1.1334428788034294e-01  1.3182481487287490e-01  1.5022548810199851e-01  1.6851827528426383e-01  1.8655076248437685e-01  2.0395479339315456e-01  2.2007030319989876e-01  2.3393555225409948e-01  2.4439087885111921e-01  2.5030382058694339e-01  2.5085952822811702e-01  2.4580831968528238e-01  2.3556227049749873e-01  2.2109510263030607e-01  2.0369012910103809e-01  1.8464408914973565e-01  1.6503563203673349e-01  1.4561556807232831e-01  1.2681190845017101e-01  1.0880295309539599e-01  9.1607186786493072e-02  7.5157069891167924e-02  5.9346058638349575e-02  4.4052647343323537e-02  2.9150091238236586e-02  1.4509374324629809e-02  0.0000000000000000e+00  0.0000000000000000e+00  1.9207638396404898e-02  3.8351217153569366e-02  5.7373228218503394e-02  7.6228924598564757e-02  9.4891390773941209e-02  1.1335333438860766e-01  1.3162135984887549e-01  1.4969603763610970e-01  1.6753030874061284e-01  1.8496320542724373e-01  2.0163869285350747e-01  2.1693906609188907e-01  2.2997850829553879e-01  2.3969848479741060e-01  2.4507151742590011e-01  2.4536294935448877e-01  2.4035395006088395e-01  2.3042897805436152e-01  2.1648638803594045e-01  1.9971164458911309e-01  1.8130933078634948e-01  1.6229165434074372e-01  1.4337556804526022e-01  1.2498338727915106e-01  1.0730578812012748e-01  9.0381410289759739e-02  7.4163218319269558e-02  5.8561545459425081e-02  4.3466805720017147e-02  2.8759427094602712e-02  1.4313746074292611e-02  0.0000000000000000e+00  0.0000000000000000e+00  1.9346413284277237e-02  3.8610346473927443e-02  5.7715028231274348e-02  7.6594691306436563e-02  9.5198662242619206e-02  1.1349236408282380e-01  1.3145167981720854e-01  1.4904524641461567e-01  1.6619882980699424e-01  1.8273982764750973e-01  1.9833063413898153e-01  2.1241564354678735e-01  2.2421958130853104e-01  2.3283107550247648e-01  2.3737602502318747e-01  2.3723827570859635e-01  2.3224699370894175e-01  2.2275023247229675e-01  2.0954006929823910e-01  1.9366162298799641e-01  1.7618568046904695e-01  1.5802666190051343e-01  1.3985049041968142e-01  1.2206953459571453e-01  1.0489138256022761e-01  8.8383544040222833e-02  7.2528797603662890e-02  5.7262128509154998e-02  4.2491203985003945e-02  2.8106409642112574e-02  1.3986020131802368e-02  0.0000000000000000e+00  0.0000000000000000e+00  1.9567547106720890e-02  3.9028237511365069e-02  5.8280049336012378e-02  7.7230157541802069e-02  9.5798058745368619e-02  1.1391588458100750e-01  1.3152312416795786e-01  1.4855170298965520e-01  1.6489729976036527e-01  1.8037603905007890e-01  1.9467401414109264e-01  2.0730920618491602e-01  2.1763474025591639e-01  2.2490886215055172e-01  2.2843404493833475e-01  2.2773149583087912e-01  2.2268834160484091e-01  2.1361513125590278e-01  2.0118667609390878e-01  1.8629085914053300e-01  1.6984696872926619e-01  1.5265737905681900e-01  1.3532838711688588e-01  1.1825954414461053e-01  1.0167680403611495e-01  8.5680372625914408e-02  7.0287233300836832e-02  5.5460644095397769e-02  4.1127567856163776e-02  2.7188466585185998e-02  1.3523795482006929e-02  0.0000000000000000e+00  0.0000000000000000e+00  1.9895452053063322e-02  3.9654660989360838e-02  5.9145502584678350e-02  7.8243588997891883e-02  9.6834678138380759e-02  1.1481462118108064e-01  1.3208481740216974e-01  1.4854040834863175e-01  1.6404865330660992e-01  1.7841751785329585e-01  1.9136056080083833e-01  2.0247265445983761e-01  2.1123722491683497e-01  2.1708247143365533e-01  2.1948712291426728e-01  2.1811040754920613e-01  2.1290048095600783e-01  2.0413616740743679e-01  1.9238240622590691e-01  1.7837695144754179e-01  1.6289275064939715e-01  1.4662270446412665e-01  1.3011394832976814e-01  1.1375265063237588e-01  9.7782533140933228e-02  8.2336337767447296e-02  6.7465390667747649e-02  5.3161091316737519e-02  3.9368584051422392e-02  2.5995717737434719e-02  1.2920601878777388e-02  0.0000000000000000e+00  0.0000000000000000e+00  2.0359545213018550e-02  4.0549229581799018e-02  6.0402894116429635e-02  7.9761290448340377e-02  9.8474173864715658e-02  1.1640032887077191e-01  1.3340414162039338e-01  1.4934700329418665e-01  1.6407220015496651e-01  1.7738390470066046e-01  1.8902501189901172e-01  1.9866400954720548e-01  2.0590467515090152e-01  2.1032960339020643e-01  2.1157682629403185e-01  2.0943143862094088e-01  2.0390076767124052e-01  1.9524239659517109e-01  1.8393169248267802e-01  1.7058058417306127e-01  1.5583771296091953e-01  1.4030214406182337e-01  1.2447014287712163e-01  1.0871698409256936e-01  9.3303347811173776e-02  7.8392500128941792e-02  6.4067922926115045e-02  5.0346765799584497e-02  3.7189060619830641e-02  2.4504972394069659e-02  1.2162833130523260e-02  0.0000000000000000e+00  0.0000000000000000e+00  2.0993467223310362e-02  4.1779688415200557e-02  6.2155077117510935e-02  8.1922912011860333e-02  1.0089556457862206e-01  1.1889505690144839e-01  1.3575106590797584e-01  1.5129542421215209e-01  1.6535259176122297e-01  1.7772698045091953e-01  1.8819065899234683e-01  1.9647819988101903e-01  2.0229726058261899e-01  2.0536121069926894e-01  2.0544236845901706e-01  2.0243346960887373e-01  1.9639683716499826e-01  1.8758153422521079e-01  1.7639993962081010e-01  1.6337118578462201e-01  1.4905077720069754e-01  1.3396742672685558e-01  1.1858047932017504e-01  1.0326022621099466e-01  8.8285193509431148e-02  7.3847817684274689e-02  6.0061703541202840e-02  4.6967217184053653e-02  3.4535385947737154e-02  2.2672131738392623e-02  1.1225721849813047e-02  0.0000000000000000e+00  0.0000000000000000e+00  2.1834618330380962e-02  4.3420911092672633e-02  6.4514561211682003e-02  8.4878870923433491e-02  1.0428754944884847e-01  1.2252619011528995e-01  1.3939190722214781e-01  1.5469067867812036e-01  1.6823233768096751e-01  1.7982411879226176e-01  1.8926525662925664e-01  1.9634689651378207e-01  2.0086231993441295e-01  2.0263072355739373e-01  2.0153290190089690e-01  1.9755065492444926e-01  1.9079709559062424e-01  1.8152579145072717e-01  1.7011353597037776e-01  1.5702125562725489e-01  1.4274487510183051e-01  1.2776929062057571e-01  1.1253425306144928e-01  9.7414329872137509e-02  8.2709890592680413e-02  6.8644017329758361e-02  5.5360980844536348e-02  4.2924057699659096e-02  3.1312845795545080e-02  2.0422367713160888e-02  1.0067902861188666e-02  0.0000000000000000e+00  0.0000000000000000e+00  2.2924086863653249e-02  4.5554743385119036e-02  6.7603264029046484e-02